<?xml version="1.0" encoding="UTF-8"?>

<!-- generated on 2026-01-03T20:02:13.383815+05:30 by Eclipse SUMO GUI 1.25.0
<sumoConfiguration xmlns:xsi="http://www.w3.org/2001/XMLSchema-instance" xsi:noNamespaceSchemaLocation="http://sumo.dlr.de/xsd/sumoConfiguration.xsd">

    <input>
        <net-file value="simple_4way_150m.net.xml"/>
        <route-files value="afternoon.rou.xml"/>
        <additional-files value="actuated_logic.add.xml"/>
    </input>

    <output>
        <tripinfo-output value="actuated_tripinfos.xml"/>
        <statistic-output value="actuated_stats.xml"/>
    </output>

    <time>
        <begin value="0"/>
        <end value="3600"/>
        <step-length value="1.0"/>
    </time>

    <report>
        <no-step-log value="true"/>
    </report>

    <traci_server>
        <remote-port value="33033"/>
    </traci_server>

</sumoConfiguration>
-->

<tripinfos xmlns:xsi="http://www.w3.org/2001/XMLSchema-instance" xsi:noNamespaceSchemaLocation="http://sumo.dlr.de/xsd/tripinfo_file.xsd">
    <tripinfo id="motorcycleFlow4.0" depart="0.00" departLane="s_in_0" departPos="2.10" departSpeed="0.00" departDelay="0.00" arrival="25.00" arrivalLane="e_out_0" arrivalPos="150.00" arrivalSpeed="13.31" duration="25.00" routeLength="312.10" waitingTime="0.00" waitingCount="0" stopTime="0.00" timeLoss="3.74" rerouteNo="0" devices="tripinfo_motorcycleFlow4.0" vType="motorcycle" speedFactor="1.08" vaporized=""/>
    <tripinfo id="motorcycleFlow3.0" depart="0.00" departLane="e_in_0" departPos="2.10" departSpeed="0.00" departDelay="0.00" arrival="31.00" arrivalLane="w_out_0" arrivalPos="150.00" arrivalSpeed="12.68" duration="31.00" routeLength="312.30" waitingTime="0.00" waitingCount="0" stopTime="0.00" timeLoss="8.11" rerouteNo="0" devices="tripinfo_motorcycleFlow3.0" vType="motorcycle" speedFactor="1.01" vaporized=""/>
    <tripinfo id="motorcycleFlow7.0" depart="4.00" departLane="e_in_0" departPos="2.10" departSpeed="0.00" departDelay="4.00" arrival="34.00" arrivalLane="n_out_0" arrivalPos="150.00" arrivalSpeed="13.15" duration="30.00" routeLength="312.10" waitingTime="0.00" waitingCount="0" stopTime="0.00" timeLoss="7.70" rerouteNo="0" devices="tripinfo_motorcycleFlow7.0" vType="motorcycle" speedFactor="1.05" vaporized=""/>
    <tripinfo id="motorcycleFlow6.0" depart="2.00" departLane="e_in_0" departPos="2.10" departSpeed="0.00" departDelay="2.00" arrival="36.00" arrivalLane="s_out_0" arrivalPos="150.00" arrivalSpeed="9.85" duration="34.00" routeLength="306.93" waitingTime="0.00" waitingCount="0" stopTime="0.00" timeLoss="5.78" rerouteNo="0" devices="tripinfo_motorcycleFlow6.0" vType="motorcycle" speedFactor="0.83" vaporized=""/>
    <tripinfo id="motorcycleFlow5.0" depart="0.00" departLane="w_in_0" departPos="2.10" departSpeed="0.00" departDelay="0.00" arrival="39.00" arrivalLane="e_out_0" arrivalPos="150.00" arrivalSpeed="13.16" duration="39.00" routeLength="312.30" waitingTime="7.00" waitingCount="1" stopTime="0.00" timeLoss="17.02" rerouteNo="0" devices="tripinfo_motorcycleFlow5.0" vType="motorcycle" speedFactor="1.03" vaporized=""/>
    <tripinfo id="motorcycleFlow9.0" depart="2.00" departLane="w_in_0" departPos="2.10" departSpeed="0.00" departDelay="2.00" arrival="43.00" arrivalLane="n_out_0" arrivalPos="150.00" arrivalSpeed="11.84" duration="41.00" routeLength="306.93" waitingTime="6.00" waitingCount="1" stopTime="0.00" timeLoss="15.98" rerouteNo="0" devices="tripinfo_motorcycleFlow9.0" vType="motorcycle" speedFactor="0.94" vaporized=""/>
    <tripinfo id="motorcycleFlow10.0" depart="4.00" departLane="w_in_0" departPos="2.10" departSpeed="0.00" departDelay="4.00" arrival="46.00" arrivalLane="s_out_0" arrivalPos="150.00" arrivalSpeed="10.51" duration="42.00" routeLength="312.10" waitingTime="4.00" waitingCount="1" stopTime="0.00" timeLoss="15.05" rerouteNo="0" devices="tripinfo_motorcycleFlow10.0" vType="motorcycle" speedFactor="0.86" vaporized=""/>
    <tripinfo id="motorcycleFlow1.0" depart="0.00" departLane="n_in_0" departPos="2.10" departSpeed="0.00" departDelay="0.00" arrival="48.00" arrivalLane="s_out_0" arrivalPos="150.00" arrivalSpeed="14.31" duration="48.00" routeLength="312.30" waitingTime="17.00" waitingCount="1" stopTime="0.00" timeLoss="25.97" rerouteNo="0" devices="tripinfo_motorcycleFlow1.0" vType="motorcycle" speedFactor="1.06" vaporized=""/>
    <tripinfo id="motorcycleFlow2.0" depart="2.00" departLane="n_in_0" departPos="2.10" departSpeed="0.00" departDelay="2.00" arrival="50.00" arrivalLane="e_out_0" arrivalPos="150.00" arrivalSpeed="12.49" duration="48.00" routeLength="306.93" waitingTime="15.00" waitingCount="1" stopTime="0.00" timeLoss="23.05" rerouteNo="0" devices="tripinfo_motorcycleFlow2.0" vType="motorcycle" speedFactor="0.94" vaporized=""/>
    <tripinfo id="motorcycleFlow11.0" depart="4.00" departLane="n_in_0" departPos="2.10" departSpeed="0.00" departDelay="4.00" arrival="50.00" arrivalLane="w_out_0" arrivalPos="150.00" arrivalSpeed="13.57" duration="46.00" routeLength="312.10" waitingTime="14.00" waitingCount="1" stopTime="0.00" timeLoss="24.66" rerouteNo="0" devices="tripinfo_motorcycleFlow11.0" vType="motorcycle" speedFactor="1.09" vaporized=""/>
    <tripinfo id="three_wheelerFlow1.0" depart="6.00" departLane="n_in_0" departPos="3.10" departSpeed="0.00" departDelay="6.00" arrival="53.00" arrivalLane="s_out_0" arrivalPos="150.00" arrivalSpeed="13.67" duration="47.00" routeLength="311.30" waitingTime="11.00" waitingCount="1" stopTime="0.00" timeLoss="24.04" rerouteNo="0" devices="tripinfo_three_wheelerFlow1.0" vType="three_wheeler" speedFactor="1.02" vaporized=""/>
    <tripinfo id="three_wheelerFlow2.0" depart="9.00" departLane="n_in_0" departPos="3.10" departSpeed="0.00" departDelay="9.00" arrival="56.00" arrivalLane="e_out_0" arrivalPos="150.00" arrivalSpeed="13.13" duration="47.00" routeLength="305.93" waitingTime="11.00" waitingCount="1" stopTime="0.00" timeLoss="23.64" rerouteNo="0" devices="tripinfo_three_wheelerFlow2.0" vType="three_wheeler" speedFactor="1.06" vaporized=""/>
    <tripinfo id="three_wheelerFlow11.0" depart="12.00" departLane="n_in_0" departPos="3.10" departSpeed="0.00" departDelay="12.00" arrival="59.00" arrivalLane="w_out_0" arrivalPos="150.00" arrivalSpeed="13.49" duration="47.00" routeLength="311.10" waitingTime="9.00" waitingCount="1" stopTime="0.00" timeLoss="23.01" rerouteNo="0" devices="tripinfo_three_wheelerFlow11.0" vType="three_wheeler" speedFactor="0.99" vaporized=""/>
    <tripinfo id="carFlow1.0" depart="15.00" departLane="n_in_0" departPos="4.60" departSpeed="0.00" departDelay="15.00" arrival="62.00" arrivalLane="s_out_0" arrivalPos="150.00" arrivalSpeed="10.61" duration="47.00" routeLength="309.80" waitingTime="8.00" waitingCount="1" stopTime="0.00" timeLoss="19.58" rerouteNo="0" devices="tripinfo_carFlow1.0" vType="car" speedFactor="0.83" vaporized=""/>
    <tripinfo id="carFlow2.0" depart="18.00" departLane="n_in_0" departPos="4.60" departSpeed="0.00" departDelay="18.00" arrival="64.00" arrivalLane="e_out_0" arrivalPos="150.00" arrivalSpeed="12.00" duration="46.00" routeLength="304.43" waitingTime="7.00" waitingCount="1" stopTime="0.00" timeLoss="19.58" rerouteNo="0" devices="tripinfo_carFlow2.0" vType="car" speedFactor="0.87" vaporized=""/>
    <tripinfo id="carFlow11.0" depart="20.00" departLane="n_in_0" departPos="4.60" departSpeed="0.00" departDelay="20.00" arrival="65.00" arrivalLane="w_out_0" arrivalPos="150.00" arrivalSpeed="13.37" duration="45.00" routeLength="309.60" waitingTime="7.00" waitingCount="1" stopTime="0.00" timeLoss="21.80" rerouteNo="0" devices="tripinfo_carFlow11.0" vType="car" speedFactor="0.99" vaporized=""/>
    <tripinfo id="vanFlow1.0" depart="23.00" departLane="n_in_0" departPos="4.90" departSpeed="0.00" departDelay="23.00" arrival="67.00" arrivalLane="s_out_0" arrivalPos="150.00" arrivalSpeed="12.81" duration="44.00" routeLength="309.50" waitingTime="5.00" waitingCount="1" stopTime="0.00" timeLoss="20.23" rerouteNo="0" devices="tripinfo_vanFlow1.0" vType="van" speedFactor="0.97" vaporized=""/>
    <tripinfo id="vanFlow2.0" depart="26.00" departLane="n_in_0" departPos="4.90" departSpeed="0.00" departDelay="26.00" arrival="69.00" arrivalLane="e_out_0" arrivalPos="150.00" arrivalSpeed="12.80" duration="43.00" routeLength="304.13" waitingTime="3.00" waitingCount="1" stopTime="0.00" timeLoss="20.01" rerouteNo="0" devices="tripinfo_vanFlow2.0" vType="van" speedFactor="1.18" vaporized=""/>
    <tripinfo id="vanFlow11.0" depart="29.00" departLane="n_in_0" departPos="4.90" departSpeed="0.00" departDelay="29.00" arrival="72.00" arrivalLane="w_out_0" arrivalPos="150.00" arrivalSpeed="13.01" duration="43.00" routeLength="309.30" waitingTime="3.00" waitingCount="1" stopTime="0.00" timeLoss="20.12" rerouteNo="0" devices="tripinfo_vanFlow11.0" vType="van" speedFactor="1.00" vaporized=""/>
    <tripinfo id="motorcycleFlow8.0" depart="2.00" departLane="s_in_0" departPos="2.10" departSpeed="0.00" departDelay="2.00" arrival="76.00" arrivalLane="n_out_0" arrivalPos="150.00" arrivalSpeed="11.48" duration="74.00" routeLength="312.30" waitingTime="40.00" waitingCount="1" stopTime="0.00" timeLoss="48.52" rerouteNo="0" devices="tripinfo_motorcycleFlow8.0" vType="motorcycle" speedFactor="0.89" vaporized=""/>
    <tripinfo id="motorcycleFlow12.0" depart="4.00" departLane="s_in_0" departPos="2.10" departSpeed="0.00" departDelay="4.00" arrival="77.00" arrivalLane="w_out_0" arrivalPos="150.00" arrivalSpeed="14.05" duration="73.00" routeLength="306.93" waitingTime="40.00" waitingCount="1" stopTime="0.00" timeLoss="50.41" rerouteNo="0" devices="tripinfo_motorcycleFlow12.0" vType="motorcycle" speedFactor="1.03" vaporized=""/>
    <tripinfo id="three_wheelerFlow4.0" depart="6.00" departLane="s_in_0" departPos="3.10" departSpeed="0.00" departDelay="6.00" arrival="81.00" arrivalLane="e_out_0" arrivalPos="150.00" arrivalSpeed="12.88" duration="75.00" routeLength="311.10" waitingTime="37.00" waitingCount="1" stopTime="0.00" timeLoss="50.67" rerouteNo="0" devices="tripinfo_three_wheelerFlow4.0" vType="three_wheeler" speedFactor="0.96" vaporized=""/>
    <tripinfo id="three_wheelerFlow8.0" depart="9.00" departLane="s_in_0" departPos="3.10" departSpeed="0.00" departDelay="9.00" arrival="82.00" arrivalLane="n_out_0" arrivalPos="150.00" arrivalSpeed="13.86" duration="73.00" routeLength="311.30" waitingTime="36.00" waitingCount="1" stopTime="0.00" timeLoss="50.00" rerouteNo="0" devices="tripinfo_three_wheelerFlow8.0" vType="three_wheeler" speedFactor="1.08" vaporized=""/>
    <tripinfo id="three_wheelerFlow12.0" depart="12.00" departLane="s_in_0" departPos="3.10" departSpeed="0.00" departDelay="12.00" arrival="85.00" arrivalLane="w_out_0" arrivalPos="150.00" arrivalSpeed="12.61" duration="73.00" routeLength="305.93" waitingTime="34.00" waitingCount="1" stopTime="0.00" timeLoss="48.94" rerouteNo="0" devices="tripinfo_three_wheelerFlow12.0" vType="three_wheeler" speedFactor="0.94" vaporized=""/>
    <tripinfo id="carFlow4.0" depart="15.00" departLane="s_in_0" departPos="4.60" departSpeed="0.00" departDelay="15.00" arrival="88.00" arrivalLane="e_out_0" arrivalPos="150.00" arrivalSpeed="11.87" duration="73.00" routeLength="309.60" waitingTime="34.00" waitingCount="1" stopTime="0.00" timeLoss="47.95" rerouteNo="0" devices="tripinfo_carFlow4.0" vType="car" speedFactor="0.95" vaporized=""/>
    <tripinfo id="carFlow8.0" depart="18.00" departLane="s_in_0" departPos="4.60" departSpeed="0.00" departDelay="18.00" arrival="88.00" arrivalLane="n_out_0" arrivalPos="150.00" arrivalSpeed="13.31" duration="70.00" routeLength="309.80" waitingTime="33.00" waitingCount="1" stopTime="0.00" timeLoss="47.22" rerouteNo="0" devices="tripinfo_carFlow8.0" vType="car" speedFactor="1.15" vaporized=""/>
    <tripinfo id="carFlow12.0" depart="21.00" departLane="s_in_0" departPos="4.60" departSpeed="0.00" departDelay="21.00" arrival="91.00" arrivalLane="w_out_0" arrivalPos="150.00" arrivalSpeed="13.75" duration="70.00" routeLength="304.43" waitingTime="32.00" waitingCount="1" stopTime="0.00" timeLoss="47.01" rerouteNo="0" devices="tripinfo_carFlow12.0" vType="car" speedFactor="1.02" vaporized=""/>
    <tripinfo id="vanFlow4.0" depart="24.00" departLane="s_in_0" departPos="4.90" departSpeed="0.00" departDelay="24.00" arrival="96.00" arrivalLane="e_out_0" arrivalPos="150.00" arrivalSpeed="12.09" duration="72.00" routeLength="309.30" waitingTime="30.00" waitingCount="1" stopTime="0.00" timeLoss="45.63" rerouteNo="0" devices="tripinfo_vanFlow4.0" vType="van" speedFactor="0.90" vaporized=""/>
    <tripinfo id="three_wheelerFlow3.0" depart="6.00" departLane="e_in_0" departPos="3.10" departSpeed="0.00" departDelay="6.00" arrival="99.00" arrivalLane="w_out_0" arrivalPos="150.00" arrivalSpeed="13.09" duration="93.00" routeLength="311.30" waitingTime="60.00" waitingCount="1" stopTime="0.00" timeLoss="70.35" rerouteNo="0" devices="tripinfo_three_wheelerFlow3.0" vType="three_wheeler" speedFactor="1.00" vaporized=""/>
    <tripinfo id="three_wheelerFlow6.0" depart="9.00" departLane="e_in_0" departPos="3.10" departSpeed="0.00" departDelay="9.00" arrival="102.00" arrivalLane="s_out_0" arrivalPos="150.00" arrivalSpeed="13.11" duration="93.00" routeLength="305.93" waitingTime="58.00" waitingCount="1" stopTime="0.00" timeLoss="68.77" rerouteNo="0" devices="tripinfo_three_wheelerFlow6.0" vType="three_wheeler" speedFactor="0.97" vaporized=""/>
    <tripinfo id="three_wheelerFlow7.0" depart="12.00" departLane="e_in_0" departPos="3.10" departSpeed="0.00" departDelay="12.00" arrival="104.00" arrivalLane="n_out_0" arrivalPos="150.00" arrivalSpeed="12.81" duration="92.00" routeLength="311.10" waitingTime="56.00" waitingCount="1" stopTime="0.00" timeLoss="67.29" rerouteNo="0" devices="tripinfo_three_wheelerFlow7.0" vType="three_wheeler" speedFactor="0.97" vaporized=""/>
    <tripinfo id="carFlow3.0" depart="15.00" departLane="e_in_0" departPos="4.60" departSpeed="0.00" departDelay="15.00" arrival="105.00" arrivalLane="w_out_0" arrivalPos="150.00" arrivalSpeed="11.66" duration="90.00" routeLength="309.80" waitingTime="56.00" waitingCount="1" stopTime="0.00" timeLoss="65.40" rerouteNo="0" devices="tripinfo_carFlow3.0" vType="car" speedFactor="0.92" vaporized=""/>
    <tripinfo id="carFlow6.0" depart="17.00" departLane="e_in_0" departPos="4.60" departSpeed="0.00" departDelay="17.00" arrival="108.00" arrivalLane="s_out_0" arrivalPos="150.00" arrivalSpeed="12.02" duration="91.00" routeLength="304.43" waitingTime="55.00" waitingCount="1" stopTime="0.00" timeLoss="66.81" rerouteNo="0" devices="tripinfo_carFlow6.0" vType="car" speedFactor="0.93" vaporized=""/>
    <tripinfo id="carFlow7.0" depart="20.00" departLane="e_in_0" departPos="4.60" departSpeed="0.00" departDelay="20.00" arrival="110.00" arrivalLane="n_out_0" arrivalPos="150.00" arrivalSpeed="12.95" duration="90.00" routeLength="309.60" waitingTime="54.00" waitingCount="2" stopTime="0.00" timeLoss="66.45" rerouteNo="0" devices="tripinfo_carFlow7.0" vType="car" speedFactor="1.18" vaporized=""/>
    <tripinfo id="three_wheelerFlow5.0" depart="6.00" departLane="w_in_0" departPos="3.10" departSpeed="0.00" departDelay="6.00" arrival="117.00" arrivalLane="e_out_0" arrivalPos="150.00" arrivalSpeed="12.23" duration="111.00" routeLength="311.30" waitingTime="70.00" waitingCount="2" stopTime="0.00" timeLoss="87.01" rerouteNo="0" devices="tripinfo_three_wheelerFlow5.0" vType="three_wheeler" speedFactor="0.94" vaporized=""/>
    <tripinfo id="three_wheelerFlow9.0" depart="9.00" departLane="w_in_0" departPos="3.10" departSpeed="0.00" departDelay="9.00" arrival="119.00" arrivalLane="n_out_0" arrivalPos="150.00" arrivalSpeed="13.23" duration="110.00" routeLength="305.93" waitingTime="69.00" waitingCount="2" stopTime="0.00" timeLoss="86.85" rerouteNo="0" devices="tripinfo_three_wheelerFlow9.0" vType="three_wheeler" speedFactor="1.01" vaporized=""/>
    <tripinfo id="three_wheelerFlow10.0" depart="12.00" departLane="w_in_0" departPos="3.10" departSpeed="0.00" departDelay="12.00" arrival="121.00" arrivalLane="s_out_0" arrivalPos="150.00" arrivalSpeed="13.33" duration="109.00" routeLength="311.10" waitingTime="65.00" waitingCount="1" stopTime="0.00" timeLoss="85.70" rerouteNo="0" devices="tripinfo_three_wheelerFlow10.0" vType="three_wheeler" speedFactor="1.01" vaporized=""/>
    <tripinfo id="vanFlow8.0" depart="27.00" departLane="s_in_0" departPos="4.90" departSpeed="0.00" departDelay="27.00" arrival="125.00" arrivalLane="n_out_0" arrivalPos="150.00" arrivalSpeed="12.99" duration="98.00" routeLength="309.50" waitingTime="54.00" waitingCount="2" stopTime="0.00" timeLoss="74.81" rerouteNo="0" devices="tripinfo_vanFlow8.0" vType="van" speedFactor="1.04" vaporized=""/>
    <tripinfo id="vanFlow12.0" depart="30.00" departLane="s_in_0" departPos="4.90" departSpeed="0.00" departDelay="30.00" arrival="128.00" arrivalLane="w_out_0" arrivalPos="150.00" arrivalSpeed="11.33" duration="98.00" routeLength="304.13" waitingTime="52.00" waitingCount="2" stopTime="0.00" timeLoss="72.87" rerouteNo="0" devices="tripinfo_vanFlow12.0" vType="van" speedFactor="0.90" vaporized=""/>
    <tripinfo id="busFlow4.0" depart="36.00" departLane="s_in_0" departPos="12.10" departSpeed="0.00" departDelay="36.00" arrival="132.00" arrivalLane="e_out_0" arrivalPos="150.00" arrivalSpeed="10.30" duration="96.00" routeLength="302.10" waitingTime="48.00" waitingCount="2" stopTime="0.00" timeLoss="67.65" rerouteNo="0" devices="tripinfo_busFlow4.0" vType="bus" speedFactor="1.00" vaporized=""/>
    <tripinfo id="busFlow8.0" depart="41.00" departLane="s_in_0" departPos="12.10" departSpeed="0.00" departDelay="41.00" arrival="134.00" arrivalLane="n_out_0" arrivalPos="150.00" arrivalSpeed="10.99" duration="93.00" routeLength="302.30" waitingTime="44.00" waitingCount="2" stopTime="0.00" timeLoss="65.40" rerouteNo="0" devices="tripinfo_busFlow8.0" vType="bus" speedFactor="1.00" vaporized=""/>
    <tripinfo id="busFlow12.0" depart="46.00" departLane="s_in_0" departPos="12.10" departSpeed="0.00" departDelay="46.00" arrival="138.00" arrivalLane="w_out_0" arrivalPos="150.00" arrivalSpeed="10.59" duration="92.00" routeLength="296.93" waitingTime="39.00" waitingCount="2" stopTime="0.00" timeLoss="64.31" rerouteNo="0" devices="tripinfo_busFlow12.0" vType="bus" speedFactor="1.00" vaporized=""/>
    <tripinfo id="truckFlow4.0" depart="53.00" departLane="s_in_0" departPos="10.10" departSpeed="0.00" departDelay="53.00" arrival="142.00" arrivalLane="e_out_0" arrivalPos="150.00" arrivalSpeed="10.95" duration="89.00" routeLength="304.10" waitingTime="32.00" waitingCount="2" stopTime="0.00" timeLoss="60.75" rerouteNo="0" devices="tripinfo_truckFlow4.0" vType="truck" speedFactor="1.08" vaporized=""/>
    <tripinfo id="truckFlow8.0" depart="59.00" departLane="s_in_0" departPos="10.10" departSpeed="0.00" departDelay="59.00" arrival="144.00" arrivalLane="n_out_0" arrivalPos="150.00" arrivalSpeed="11.05" duration="85.00" routeLength="304.30" waitingTime="30.00" waitingCount="2" stopTime="0.00" timeLoss="57.26" rerouteNo="0" devices="tripinfo_truckFlow8.0" vType="truck" speedFactor="1.00" vaporized=""/>
    <tripinfo id="truckFlow12.0" depart="67.00" departLane="s_in_0" departPos="10.10" departSpeed="0.00" departDelay="67.00" arrival="148.00" arrivalLane="w_out_0" arrivalPos="150.00" arrivalSpeed="10.93" duration="81.00" routeLength="298.93" waitingTime="27.00" waitingCount="2" stopTime="0.00" timeLoss="53.11" rerouteNo="0" devices="tripinfo_truckFlow12.0" vType="truck" speedFactor="0.98" vaporized=""/>
    <tripinfo id="motorcycleFlow4.1" depart="81.00" departLane="s_in_0" departPos="2.10" departSpeed="0.00" departDelay="47.82" arrival="148.00" arrivalLane="e_out_0" arrivalPos="150.00" arrivalSpeed="15.39" duration="67.00" routeLength="312.10" waitingTime="19.00" waitingCount="1" stopTime="0.00" timeLoss="45.26" rerouteNo="0" devices="tripinfo_motorcycleFlow4.1" vType="motorcycle" speedFactor="1.12" vaporized=""/>
    <tripinfo id="motorcycleFlow4.2" depart="84.00" departLane="s_in_0" departPos="2.10" departSpeed="0.00" departDelay="17.64" arrival="151.00" arrivalLane="e_out_0" arrivalPos="150.00" arrivalSpeed="13.53" duration="67.00" routeLength="312.10" waitingTime="20.00" waitingCount="2" stopTime="0.00" timeLoss="42.90" rerouteNo="0" devices="tripinfo_motorcycleFlow4.2" vType="motorcycle" speedFactor="0.99" vaporized=""/>
    <tripinfo id="motorcycleFlow12.1" depart="87.00" departLane="s_in_0" departPos="2.10" departSpeed="0.00" departDelay="19.71" arrival="153.00" arrivalLane="w_out_0" arrivalPos="150.00" arrivalSpeed="12.66" duration="66.00" routeLength="306.93" waitingTime="19.00" waitingCount="1" stopTime="0.00" timeLoss="41.67" rerouteNo="0" devices="tripinfo_motorcycleFlow12.1" vType="motorcycle" speedFactor="0.94" vaporized=""/>
    <tripinfo id="motorcycleFlow8.1" depart="89.00" departLane="s_in_0" departPos="2.10" departSpeed="0.00" departDelay="9.00" arrival="153.00" arrivalLane="n_out_0" arrivalPos="150.00" arrivalSpeed="14.42" duration="64.00" routeLength="312.30" waitingTime="20.00" waitingCount="2" stopTime="0.00" timeLoss="42.03" rerouteNo="0" devices="tripinfo_motorcycleFlow8.1" vType="motorcycle" speedFactor="1.04" vaporized=""/>
    <tripinfo id="three_wheelerFlow12.1" depart="92.00" departLane="s_in_0" departPos="3.10" departSpeed="0.00" departDelay="8.28" arrival="156.00" arrivalLane="w_out_0" arrivalPos="150.00" arrivalSpeed="13.72" duration="64.00" routeLength="305.93" waitingTime="18.00" waitingCount="1" stopTime="0.00" timeLoss="41.45" rerouteNo="0" devices="tripinfo_three_wheelerFlow12.1" vType="three_wheeler" speedFactor="1.01" vaporized=""/>
    <tripinfo id="motorcycleFlow4.3" depart="102.00" departLane="s_in_0" departPos="2.10" departSpeed="0.00" departDelay="2.46" arrival="159.00" arrivalLane="e_out_0" arrivalPos="150.00" arrivalSpeed="12.97" duration="57.00" routeLength="312.10" waitingTime="14.00" waitingCount="1" stopTime="0.00" timeLoss="32.76" rerouteNo="0" devices="tripinfo_motorcycleFlow4.3" vType="motorcycle" speedFactor="0.98" vaporized=""/>
    <tripinfo id="motorcycleFlow4.4" depart="133.00" departLane="s_in_0" departPos="2.10" departSpeed="0.00" departDelay="0.28" arrival="160.00" arrivalLane="e_out_0" arrivalPos="150.00" arrivalSpeed="14.94" duration="27.00" routeLength="312.10" waitingTime="0.00" waitingCount="0" stopTime="0.00" timeLoss="5.29" rerouteNo="0" devices="tripinfo_motorcycleFlow4.4" vType="motorcycle" speedFactor="1.09" vaporized=""/>
    <tripinfo id="motorcycleFlow12.2" depart="135.00" departLane="s_in_0" departPos="2.10" departSpeed="0.00" departDelay="0.42" arrival="162.00" arrivalLane="w_out_0" arrivalPos="150.00" arrivalSpeed="13.87" duration="27.00" routeLength="306.93" waitingTime="0.00" waitingCount="0" stopTime="0.00" timeLoss="4.53" rerouteNo="0" devices="tripinfo_motorcycleFlow12.2" vType="motorcycle" speedFactor="1.03" vaporized=""/>
    <tripinfo id="busFlow1.0" depart="34.00" departLane="n_in_0" departPos="12.10" departSpeed="0.00" departDelay="34.00" arrival="170.00" arrivalLane="s_out_0" arrivalPos="150.00" arrivalSpeed="10.22" duration="136.00" routeLength="302.30" waitingTime="89.00" waitingCount="1" stopTime="0.00" timeLoss="108.79" rerouteNo="0" devices="tripinfo_busFlow1.0" vType="bus" speedFactor="1.00" vaporized=""/>
    <tripinfo id="busFlow2.0" depart="39.00" departLane="n_in_0" departPos="12.10" departSpeed="0.00" departDelay="39.00" arrival="174.00" arrivalLane="e_out_0" arrivalPos="150.00" arrivalSpeed="10.41" duration="135.00" routeLength="296.93" waitingTime="89.00" waitingCount="1" stopTime="0.00" timeLoss="106.80" rerouteNo="0" devices="tripinfo_busFlow2.0" vType="bus" speedFactor="1.00" vaporized=""/>
    <tripinfo id="busFlow11.0" depart="44.00" departLane="n_in_0" departPos="12.10" departSpeed="0.00" departDelay="44.00" arrival="178.00" arrivalLane="w_out_0" arrivalPos="150.00" arrivalSpeed="10.79" duration="134.00" routeLength="302.10" waitingTime="88.00" waitingCount="1" stopTime="0.00" timeLoss="105.75" rerouteNo="0" devices="tripinfo_busFlow11.0" vType="bus" speedFactor="1.00" vaporized=""/>
    <tripinfo id="truckFlow1.0" depart="48.00" departLane="n_in_0" departPos="10.10" departSpeed="0.00" departDelay="48.00" arrival="181.00" arrivalLane="s_out_0" arrivalPos="150.00" arrivalSpeed="10.80" duration="133.00" routeLength="304.30" waitingTime="86.00" waitingCount="1" stopTime="0.00" timeLoss="104.74" rerouteNo="0" devices="tripinfo_truckFlow1.0" vType="truck" speedFactor="0.94" vaporized=""/>
    <tripinfo id="truckFlow2.0" depart="54.00" departLane="n_in_0" departPos="10.10" departSpeed="0.00" departDelay="54.00" arrival="185.00" arrivalLane="e_out_0" arrivalPos="150.00" arrivalSpeed="10.79" duration="131.00" routeLength="298.93" waitingTime="83.00" waitingCount="1" stopTime="0.00" timeLoss="103.60" rerouteNo="0" devices="tripinfo_truckFlow2.0" vType="truck" speedFactor="0.93" vaporized=""/>
    <tripinfo id="motorcycleFlow1.1" depart="64.00" departLane="n_in_0" departPos="2.10" departSpeed="0.00" departDelay="33.62" arrival="188.00" arrivalLane="s_out_0" arrivalPos="150.00" arrivalSpeed="14.96" duration="124.00" routeLength="312.30" waitingTime="79.00" waitingCount="1" stopTime="0.00" timeLoss="102.49" rerouteNo="0" devices="tripinfo_motorcycleFlow1.1" vType="motorcycle" speedFactor="1.08" vaporized=""/>
    <tripinfo id="truckFlow11.0" depart="60.00" departLane="n_in_0" departPos="10.10" departSpeed="0.00" departDelay="60.00" arrival="190.00" arrivalLane="w_out_0" arrivalPos="150.00" arrivalSpeed="10.62" duration="130.00" routeLength="304.10" waitingTime="81.00" waitingCount="1" stopTime="0.00" timeLoss="101.34" rerouteNo="0" devices="tripinfo_truckFlow11.0" vType="truck" speedFactor="1.01" vaporized=""/>
    <tripinfo id="motorcycleFlow1.2" depart="67.00" departLane="n_in_0" departPos="2.10" departSpeed="0.00" departDelay="6.24" arrival="190.00" arrivalLane="s_out_0" arrivalPos="150.00" arrivalSpeed="12.69" duration="123.00" routeLength="312.30" waitingTime="79.00" waitingCount="1" stopTime="0.00" timeLoss="100.59" rerouteNo="0" devices="tripinfo_motorcycleFlow1.2" vType="motorcycle" speedFactor="1.02" vaporized=""/>
    <tripinfo id="motorcycleFlow2.1" depart="82.00" departLane="n_in_0" departPos="2.10" departSpeed="0.00" departDelay="2.00" arrival="194.00" arrivalLane="e_out_0" arrivalPos="150.00" arrivalSpeed="11.75" duration="112.00" routeLength="306.93" waitingTime="70.00" waitingCount="1" stopTime="0.00" timeLoss="87.02" rerouteNo="0" devices="tripinfo_motorcycleFlow2.1" vType="motorcycle" speedFactor="0.91" vaporized=""/>
    <tripinfo id="motorcycleFlow1.3" depart="92.00" departLane="n_in_0" departPos="2.10" departSpeed="0.00" departDelay="0.86" arrival="196.00" arrivalLane="s_out_0" arrivalPos="150.00" arrivalSpeed="12.09" duration="104.00" routeLength="312.30" waitingTime="59.00" waitingCount="1" stopTime="0.00" timeLoss="79.40" rerouteNo="0" devices="tripinfo_motorcycleFlow1.3" vType="motorcycle" speedFactor="0.94" vaporized=""/>
    <tripinfo id="motorcycleFlow11.1" depart="94.00" departLane="n_in_0" departPos="2.10" departSpeed="0.00" departDelay="1.10" arrival="196.00" arrivalLane="w_out_0" arrivalPos="150.00" arrivalSpeed="13.41" duration="102.00" routeLength="312.10" waitingTime="59.00" waitingCount="1" stopTime="0.00" timeLoss="80.33" rerouteNo="0" devices="tripinfo_motorcycleFlow11.1" vType="motorcycle" speedFactor="1.06" vaporized=""/>
    <tripinfo id="motorcycleFlow1.4" depart="122.00" departLane="n_in_0" departPos="2.10" departSpeed="0.00" departDelay="0.48" arrival="199.00" arrivalLane="s_out_0" arrivalPos="150.00" arrivalSpeed="12.68" duration="77.00" routeLength="312.30" waitingTime="35.00" waitingCount="1" stopTime="0.00" timeLoss="53.23" rerouteNo="0" devices="tripinfo_motorcycleFlow1.4" vType="motorcycle" speedFactor="0.98" vaporized=""/>
    <tripinfo id="motorcycleFlow1.5" depart="153.00" departLane="n_in_0" departPos="2.10" departSpeed="0.00" departDelay="1.10" arrival="200.00" arrivalLane="s_out_0" arrivalPos="150.00" arrivalSpeed="15.41" duration="47.00" routeLength="312.30" waitingTime="3.00" waitingCount="1" stopTime="0.00" timeLoss="26.95" rerouteNo="0" devices="tripinfo_motorcycleFlow1.5" vType="motorcycle" speedFactor="1.15" vaporized=""/>
    <tripinfo id="carFlow1.1" depart="155.00" departLane="n_in_0" departPos="4.60" departSpeed="0.00" departDelay="1.81" arrival="202.00" arrivalLane="s_out_0" arrivalPos="150.00" arrivalSpeed="13.42" duration="47.00" routeLength="309.80" waitingTime="3.00" waitingCount="1" stopTime="0.00" timeLoss="23.77" rerouteNo="0" devices="tripinfo_carFlow1.1" vType="car" speedFactor="0.98" vaporized=""/>
    <tripinfo id="carFlow5.0" depart="15.00" departLane="w_in_0" departPos="4.60" departSpeed="0.00" departDelay="15.00" arrival="207.00" arrivalLane="e_out_0" arrivalPos="150.00" arrivalSpeed="13.73" duration="192.00" routeLength="309.80" waitingTime="145.00" waitingCount="2" stopTime="0.00" timeLoss="169.48" rerouteNo="0" devices="tripinfo_carFlow5.0" vType="car" speedFactor="1.13" vaporized=""/>
    <tripinfo id="carFlow9.0" depart="18.00" departLane="w_in_0" departPos="4.60" departSpeed="0.00" departDelay="18.00" arrival="209.00" arrivalLane="n_out_0" arrivalPos="150.00" arrivalSpeed="12.48" duration="191.00" routeLength="304.43" waitingTime="144.00" waitingCount="2" stopTime="0.00" timeLoss="168.40" rerouteNo="0" devices="tripinfo_carFlow9.0" vType="car" speedFactor="1.01" vaporized=""/>
    <tripinfo id="carFlow10.0" depart="21.00" departLane="w_in_0" departPos="4.60" departSpeed="0.00" departDelay="21.00" arrival="212.00" arrivalLane="s_out_0" arrivalPos="150.00" arrivalSpeed="13.36" duration="191.00" routeLength="309.60" waitingTime="143.00" waitingCount="2" stopTime="0.00" timeLoss="167.62" rerouteNo="0" devices="tripinfo_carFlow10.0" vType="car" speedFactor="1.17" vaporized=""/>