<?xml version="1.0" encoding="UTF-8"?>

<!-- generated on 2026-01-03 19:58:55 by Eclipse SUMO GUI Version 1.24.0
<sumoConfiguration xmlns:xsi="http://www.w3.org/2001/XMLSchema-instance" xsi:noNamespaceSchemaLocation="http://sumo.dlr.de/xsd/sumoConfiguration.xsd">

    <input>
        <net-file value="\\wsl.localhost\Ubuntu\home\sayuru\sumo-traffic-simulation-research\new-traffic\simple_4way_150m.net.xml"/>
        <route-files value="\\wsl.localhost\Ubuntu\home\sayuru\sumo-traffic-simulation-research\new-traffic\afternoon.rou.xml"/>
        <additional-files value="\\wsl.localhost\Ubuntu\home\sayuru\sumo-traffic-simulation-research\new-traffic\static_logic.add.xml"/>
    </input>

    <output>
        <tripinfo-output value="\\wsl.localhost\Ubuntu\home\sayuru\sumo-traffic-simulation-research\new-traffic\static_tripinfos.xml"/>
    </output>

    <time>
        <begin value="0"/>
        <end value="3600"/>
    </time>

    <report>
        <no-step-log value="true"/>
    </report>

</sumoConfiguration>
-->

<tripinfos xmlns:xsi="http://www.w3.org/2001/XMLSchema-instance" xsi:noNamespaceSchemaLocation="http://sumo.dlr.de/xsd/tripinfo_file.xsd">
    <tripinfo id="motorcycleFlow4.0" depart="0.00" departLane="s_in_0" departPos="2.10" departSpeed="0.00" departDelay="0.00" arrival="26.00" arrivalLane="e_out_0" arrivalPos="150.00" arrivalSpeed="13.31" duration="26.00" routeLength="312.10" waitingTime="0.00" waitingCount="0" stopTime="0.00" timeLoss="4.24" rerouteNo="0" devices="tripinfo_motorcycleFlow4.0" vType="motorcycle" speedFactor="1.08" vaporized=""/>
    <tripinfo id="motorcycleFlow8.0" depart="2.00" departLane="s_in_0" departPos="2.10" departSpeed="0.00" departDelay="2.00" arrival="31.00" arrivalLane="n_out_0" arrivalPos="150.00" arrivalSpeed="11.31" duration="29.00" routeLength="312.30" waitingTime="0.00" waitingCount="0" stopTime="0.00" timeLoss="3.44" rerouteNo="0" devices="tripinfo_motorcycleFlow8.0" vType="motorcycle" speedFactor="0.89" vaporized=""/>
    <tripinfo id="motorcycleFlow12.0" depart="4.00" departLane="s_in_0" departPos="2.10" departSpeed="0.00" departDelay="4.00" arrival="32.00" arrivalLane="w_out_0" arrivalPos="150.00" arrivalSpeed="12.93" duration="28.00" routeLength="306.93" waitingTime="0.00" waitingCount="0" stopTime="0.00" timeLoss="5.67" rerouteNo="0" devices="tripinfo_motorcycleFlow12.0" vType="motorcycle" speedFactor="1.03" vaporized=""/>
    <tripinfo id="three_wheelerFlow4.0" depart="6.00" departLane="s_in_0" departPos="3.10" departSpeed="0.00" departDelay="6.00" arrival="38.00" arrivalLane="e_out_0" arrivalPos="150.00" arrivalSpeed="12.72" duration="32.00" routeLength="311.10" waitingTime="0.00" waitingCount="0" stopTime="0.00" timeLoss="7.65" rerouteNo="0" devices="tripinfo_three_wheelerFlow4.0" vType="three_wheeler" speedFactor="0.96" vaporized=""/>
    <tripinfo id="motorcycleFlow3.0" depart="0.00" departLane="e_in_0" departPos="2.10" departSpeed="0.00" departDelay="0.00" arrival="42.00" arrivalLane="w_out_0" arrivalPos="150.00" arrivalSpeed="13.52" duration="42.00" routeLength="312.30" waitingTime="11.00" waitingCount="1" stopTime="0.00" timeLoss="19.17" rerouteNo="0" devices="tripinfo_motorcycleFlow3.0" vType="motorcycle" speedFactor="1.01" vaporized=""/>
    <tripinfo id="motorcycleFlow7.0" depart="4.00" departLane="e_in_0" departPos="2.10" departSpeed="0.00" departDelay="4.00" arrival="46.00" arrivalLane="n_out_0" arrivalPos="150.00" arrivalSpeed="13.97" duration="42.00" routeLength="312.10" waitingTime="7.00" waitingCount="1" stopTime="0.00" timeLoss="19.03" rerouteNo="0" devices="tripinfo_motorcycleFlow7.0" vType="motorcycle" speedFactor="1.05" vaporized=""/>
    <tripinfo id="motorcycleFlow6.0" depart="2.00" departLane="e_in_0" departPos="2.10" departSpeed="0.00" departDelay="2.00" arrival="47.00" arrivalLane="s_out_0" arrivalPos="150.00" arrivalSpeed="10.43" duration="45.00" routeLength="306.93" waitingTime="9.00" waitingCount="1" stopTime="0.00" timeLoss="17.00" rerouteNo="0" devices="tripinfo_motorcycleFlow6.0" vType="motorcycle" speedFactor="0.83" vaporized=""/>
    <tripinfo id="three_wheelerFlow3.0" depart="6.00" departLane="e_in_0" departPos="3.10" departSpeed="0.00" departDelay="6.00" arrival="48.00" arrivalLane="w_out_0" arrivalPos="150.00" arrivalSpeed="13.59" duration="42.00" routeLength="311.30" waitingTime="6.00" waitingCount="1" stopTime="0.00" timeLoss="19.12" rerouteNo="0" devices="tripinfo_three_wheelerFlow3.0" vType="three_wheeler" speedFactor="1.00" vaporized=""/>
    <tripinfo id="three_wheelerFlow6.0" depart="9.00" departLane="e_in_0" departPos="3.10" departSpeed="0.00" departDelay="9.00" arrival="51.00" arrivalLane="s_out_0" arrivalPos="150.00" arrivalSpeed="12.86" duration="42.00" routeLength="305.93" waitingTime="5.00" waitingCount="1" stopTime="0.00" timeLoss="18.13" rerouteNo="0" devices="tripinfo_three_wheelerFlow6.0" vType="three_wheeler" speedFactor="0.97" vaporized=""/>
    <tripinfo id="three_wheelerFlow7.0" depart="12.00" departLane="e_in_0" departPos="3.10" departSpeed="0.00" departDelay="12.00" arrival="54.00" arrivalLane="n_out_0" arrivalPos="150.00" arrivalSpeed="12.73" duration="42.00" routeLength="311.10" waitingTime="4.00" waitingCount="1" stopTime="0.00" timeLoss="17.74" rerouteNo="0" devices="tripinfo_three_wheelerFlow7.0" vType="three_wheeler" speedFactor="0.97" vaporized=""/>
    <tripinfo id="carFlow3.0" depart="15.00" departLane="e_in_0" departPos="4.60" departSpeed="0.00" departDelay="15.00" arrival="56.00" arrivalLane="w_out_0" arrivalPos="150.00" arrivalSpeed="11.76" duration="41.00" routeLength="309.80" waitingTime="2.00" waitingCount="1" stopTime="0.00" timeLoss="16.02" rerouteNo="0" devices="tripinfo_carFlow3.0" vType="car" speedFactor="0.92" vaporized=""/>
    <tripinfo id="carFlow6.0" depart="17.00" departLane="e_in_0" departPos="4.60" departSpeed="0.00" departDelay="17.00" arrival="58.00" arrivalLane="s_out_0" arrivalPos="150.00" arrivalSpeed="12.43" duration="41.00" routeLength="304.43" waitingTime="2.00" waitingCount="1" stopTime="0.00" timeLoss="16.65" rerouteNo="0" devices="tripinfo_carFlow6.0" vType="car" speedFactor="0.93" vaporized=""/>
    <tripinfo id="carFlow7.0" depart="20.00" departLane="e_in_0" departPos="4.60" departSpeed="0.00" departDelay="20.00" arrival="59.00" arrivalLane="n_out_0" arrivalPos="150.00" arrivalSpeed="13.39" duration="39.00" routeLength="309.60" waitingTime="2.00" waitingCount="1" stopTime="0.00" timeLoss="16.17" rerouteNo="0" devices="tripinfo_carFlow7.0" vType="car" speedFactor="1.18" vaporized=""/>
    <tripinfo id="vanFlow3.0" depart="23.00" departLane="e_in_0" departPos="4.90" departSpeed="0.00" departDelay="23.00" arrival="61.00" arrivalLane="w_out_0" arrivalPos="150.00" arrivalSpeed="12.87" duration="38.00" routeLength="309.50" waitingTime="0.00" waitingCount="0" stopTime="0.00" timeLoss="15.45" rerouteNo="0" devices="tripinfo_vanFlow3.0" vType="van" speedFactor="1.10" vaporized=""/>
    <tripinfo id="vanFlow6.0" depart="26.00" departLane="e_in_0" departPos="4.90" departSpeed="0.00" departDelay="26.00" arrival="65.00" arrivalLane="s_out_0" arrivalPos="150.00" arrivalSpeed="13.15" duration="39.00" routeLength="304.13" waitingTime="0.00" waitingCount="0" stopTime="0.00" timeLoss="15.13" rerouteNo="0" devices="tripinfo_vanFlow6.0" vType="van" speedFactor="0.96" vaporized=""/>
    <tripinfo id="motorcycleFlow1.0" depart="0.00" departLane="n_in_0" departPos="2.10" departSpeed="0.00" departDelay="0.00" arrival="69.00" arrivalLane="s_out_0" arrivalPos="150.00" arrivalSpeed="13.74" duration="69.00" routeLength="312.30" waitingTime="40.00" waitingCount="1" stopTime="0.00" timeLoss="47.53" rerouteNo="0" devices="tripinfo_motorcycleFlow1.0" vType="motorcycle" speedFactor="1.06" vaporized=""/>
    <tripinfo id="motorcycleFlow2.0" depart="2.00" departLane="n_in_0" departPos="2.10" departSpeed="0.00" departDelay="2.00" arrival="73.00" arrivalLane="e_out_0" arrivalPos="150.00" arrivalSpeed="12.49" duration="71.00" routeLength="306.93" waitingTime="38.00" waitingCount="1" stopTime="0.00" timeLoss="46.16" rerouteNo="0" devices="tripinfo_motorcycleFlow2.0" vType="motorcycle" speedFactor="0.94" vaporized=""/>
    <tripinfo id="motorcycleFlow11.0" depart="4.00" departLane="n_in_0" departPos="2.10" departSpeed="0.00" departDelay="4.00" arrival="74.00" arrivalLane="w_out_0" arrivalPos="150.00" arrivalSpeed="13.96" duration="70.00" routeLength="312.10" waitingTime="37.00" waitingCount="1" stopTime="0.00" timeLoss="48.61" rerouteNo="0" devices="tripinfo_motorcycleFlow11.0" vType="motorcycle" speedFactor="1.09" vaporized=""/>
    <tripinfo id="three_wheelerFlow1.0" depart="6.00" departLane="n_in_0" departPos="3.10" departSpeed="0.00" departDelay="6.00" arrival="76.00" arrivalLane="s_out_0" arrivalPos="150.00" arrivalSpeed="13.32" duration="70.00" routeLength="311.30" waitingTime="34.00" waitingCount="1" stopTime="0.00" timeLoss="47.59" rerouteNo="0" devices="tripinfo_three_wheelerFlow1.0" vType="three_wheeler" speedFactor="1.02" vaporized=""/>
    <tripinfo id="three_wheelerFlow2.0" depart="9.00" departLane="n_in_0" departPos="3.10" departSpeed="0.00" departDelay="9.00" arrival="79.00" arrivalLane="e_out_0" arrivalPos="150.00" arrivalSpeed="12.90" duration="70.00" routeLength="305.93" waitingTime="34.00" waitingCount="1" stopTime="0.00" timeLoss="47.08" rerouteNo="0" devices="tripinfo_three_wheelerFlow2.0" vType="three_wheeler" speedFactor="1.06" vaporized=""/>
    <tripinfo id="three_wheelerFlow11.0" depart="12.00" departLane="n_in_0" departPos="3.10" departSpeed="0.00" departDelay="12.00" arrival="82.00" arrivalLane="w_out_0" arrivalPos="150.00" arrivalSpeed="13.33" duration="70.00" routeLength="311.10" waitingTime="32.00" waitingCount="1" stopTime="0.00" timeLoss="45.76" rerouteNo="0" devices="tripinfo_three_wheelerFlow11.0" vType="three_wheeler" speedFactor="0.99" vaporized=""/>
    <tripinfo id="carFlow1.0" depart="15.00" departLane="n_in_0" departPos="4.60" departSpeed="0.00" departDelay="15.00" arrival="85.00" arrivalLane="s_out_0" arrivalPos="150.00" arrivalSpeed="11.32" duration="70.00" routeLength="309.80" waitingTime="31.00" waitingCount="1" stopTime="0.00" timeLoss="42.54" rerouteNo="0" devices="tripinfo_carFlow1.0" vType="car" speedFactor="0.83" vaporized=""/>
    <tripinfo id="carFlow2.0" depart="18.00" departLane="n_in_0" departPos="4.60" departSpeed="0.00" departDelay="18.00" arrival="88.00" arrivalLane="e_out_0" arrivalPos="150.00" arrivalSpeed="10.92" duration="70.00" routeLength="304.43" waitingTime="30.00" waitingCount="1" stopTime="0.00" timeLoss="43.38" rerouteNo="0" devices="tripinfo_carFlow2.0" vType="car" speedFactor="0.87" vaporized=""/>
    <tripinfo id="carFlow11.0" depart="20.00" departLane="n_in_0" departPos="4.60" departSpeed="0.00" departDelay="20.00" arrival="89.00" arrivalLane="w_out_0" arrivalPos="150.00" arrivalSpeed="13.13" duration="69.00" routeLength="309.60" waitingTime="29.00" waitingCount="1" stopTime="0.00" timeLoss="46.06" rerouteNo="0" devices="tripinfo_carFlow11.0" vType="car" speedFactor="0.99" vaporized=""/>
    <tripinfo id="vanFlow1.0" depart="23.00" departLane="n_in_0" departPos="4.90" departSpeed="0.00" departDelay="23.00" arrival="91.00" arrivalLane="s_out_0" arrivalPos="150.00" arrivalSpeed="13.12" duration="68.00" routeLength="309.50" waitingTime="27.00" waitingCount="1" stopTime="0.00" timeLoss="44.64" rerouteNo="0" devices="tripinfo_vanFlow1.0" vType="van" speedFactor="0.97" vaporized=""/>
    <tripinfo id="vanFlow2.0" depart="26.00" departLane="n_in_0" departPos="4.90" departSpeed="0.00" departDelay="26.00" arrival="93.00" arrivalLane="e_out_0" arrivalPos="150.00" arrivalSpeed="13.48" duration="67.00" routeLength="304.13" waitingTime="27.00" waitingCount="1" stopTime="0.00" timeLoss="44.14" rerouteNo="0" devices="tripinfo_vanFlow2.0" vType="van" speedFactor="1.18" vaporized=""/>
    <tripinfo id="motorcycleFlow5.0" depart="0.00" departLane="w_in_0" departPos="2.10" departSpeed="0.00" departDelay="0.00" arrival="98.00" arrivalLane="e_out_0" arrivalPos="150.00" arrivalSpeed="13.43" duration="98.00" routeLength="312.30" waitingTime="66.00" waitingCount="1" stopTime="0.00" timeLoss="75.52" rerouteNo="0" devices="tripinfo_motorcycleFlow5.0" vType="motorcycle" speedFactor="1.03" vaporized=""/>
    <tripinfo id="motorcycleFlow9.0" depart="2.00" departLane="w_in_0" departPos="2.10" departSpeed="0.00" departDelay="2.00" arrival="101.00" arrivalLane="n_out_0" arrivalPos="150.00" arrivalSpeed="11.84" duration="99.00" routeLength="306.93" waitingTime="65.00" waitingCount="1" stopTime="0.00" timeLoss="73.78" rerouteNo="0" devices="tripinfo_motorcycleFlow9.0" vType="motorcycle" speedFactor="0.94" vaporized=""/>
    <tripinfo id="motorcycleFlow10.0" depart="4.00" departLane="w_in_0" departPos="2.10" departSpeed="0.00" departDelay="4.00" arrival="105.00" arrivalLane="s_out_0" arrivalPos="150.00" arrivalSpeed="10.64" duration="101.00" routeLength="312.10" waitingTime="63.00" waitingCount="1" stopTime="0.00" timeLoss="72.87" rerouteNo="0" devices="tripinfo_motorcycleFlow10.0" vType="motorcycle" speedFactor="0.86" vaporized=""/>
    <tripinfo id="three_wheelerFlow5.0" depart="6.00" departLane="w_in_0" departPos="3.10" departSpeed="0.00" departDelay="6.00" arrival="105.00" arrivalLane="e_out_0" arrivalPos="150.00" arrivalSpeed="12.25" duration="99.00" routeLength="311.30" waitingTime="63.00" waitingCount="1" stopTime="0.00" timeLoss="74.94" rerouteNo="0" devices="tripinfo_three_wheelerFlow5.0" vType="three_wheeler" speedFactor="0.94" vaporized=""/>
    <tripinfo id="three_wheelerFlow9.0" depart="9.00" departLane="w_in_0" departPos="3.10" departSpeed="0.00" departDelay="9.00" arrival="107.00" arrivalLane="n_out_0" arrivalPos="150.00" arrivalSpeed="12.96" duration="98.00" routeLength="305.93" waitingTime="62.00" waitingCount="1" stopTime="0.00" timeLoss="74.68" rerouteNo="0" devices="tripinfo_three_wheelerFlow9.0" vType="three_wheeler" speedFactor="1.01" vaporized=""/>
    <tripinfo id="three_wheelerFlow10.0" depart="12.00" departLane="w_in_0" departPos="3.10" departSpeed="0.00" departDelay="12.00" arrival="109.00" arrivalLane="s_out_0" arrivalPos="150.00" arrivalSpeed="13.40" duration="97.00" routeLength="311.10" waitingTime="61.00" waitingCount="1" stopTime="0.00" timeLoss="73.92" rerouteNo="0" devices="tripinfo_three_wheelerFlow10.0" vType="three_wheeler" speedFactor="1.01" vaporized=""/>
    <tripinfo id="carFlow5.0" depart="15.00" departLane="w_in_0" departPos="4.60" departSpeed="0.00" departDelay="15.00" arrival="110.00" arrivalLane="e_out_0" arrivalPos="150.00" arrivalSpeed="13.20" duration="95.00" routeLength="309.80" waitingTime="59.00" waitingCount="1" stopTime="0.00" timeLoss="72.32" rerouteNo="0" devices="tripinfo_carFlow5.0" vType="car" speedFactor="1.13" vaporized=""/>
    <tripinfo id="carFlow9.0" depart="18.00" departLane="w_in_0" departPos="4.60" departSpeed="0.00" departDelay="18.00" arrival="113.00" arrivalLane="n_out_0" arrivalPos="150.00" arrivalSpeed="12.97" duration="95.00" routeLength="304.43" waitingTime="58.00" waitingCount="1" stopTime="0.00" timeLoss="72.61" rerouteNo="0" devices="tripinfo_carFlow9.0" vType="car" speedFactor="1.01" vaporized=""/>
    <tripinfo id="carFlow10.0" depart="21.00" departLane="w_in_0" departPos="4.60" departSpeed="0.00" departDelay="21.00" arrival="116.00" arrivalLane="s_out_0" arrivalPos="150.00" arrivalSpeed="13.64" duration="95.00" routeLength="309.60" waitingTime="57.00" waitingCount="1" stopTime="0.00" timeLoss="71.67" rerouteNo="0" devices="tripinfo_carFlow10.0" vType="car" speedFactor="1.17" vaporized=""/>
    <tripinfo id="vanFlow5.0" depart="24.00" departLane="w_in_0" departPos="4.90" departSpeed="0.00" departDelay="24.00" arrival="118.00" arrivalLane="e_out_0" arrivalPos="150.00" arrivalSpeed="13.80" duration="94.00" routeLength="309.50" waitingTime="55.00" waitingCount="1" stopTime="0.00" timeLoss="70.90" rerouteNo="0" devices="tripinfo_vanFlow5.0" vType="van" speedFactor="1.03" vaporized=""/>
    <tripinfo id="vanFlow9.0" depart="27.00" departLane="w_in_0" departPos="4.90" departSpeed="0.00" departDelay="27.00" arrival="120.00" arrivalLane="n_out_0" arrivalPos="150.00" arrivalSpeed="12.73" duration="93.00" routeLength="304.13" waitingTime="53.00" waitingCount="1" stopTime="0.00" timeLoss="70.47" rerouteNo="0" devices="tripinfo_vanFlow9.0" vType="van" speedFactor="1.04" vaporized=""/>
    <tripinfo id="three_wheelerFlow8.0" depart="9.00" departLane="s_in_0" departPos="3.10" departSpeed="0.00" departDelay="9.00" arrival="128.00" arrivalLane="n_out_0" arrivalPos="150.00" arrivalSpeed="13.41" duration="119.00" routeLength="311.30" waitingTime="83.00" waitingCount="1" stopTime="0.00" timeLoss="95.99" rerouteNo="0" devices="tripinfo_three_wheelerFlow8.0" vType="three_wheeler" speedFactor="1.08" vaporized=""/>
    <tripinfo id="three_wheelerFlow12.0" depart="12.00" departLane="s_in_0" departPos="3.10" departSpeed="0.00" departDelay="12.00" arrival="130.00" arrivalLane="w_out_0" arrivalPos="150.00" arrivalSpeed="12.79" duration="118.00" routeLength="305.93" waitingTime="83.00" waitingCount="1" stopTime="0.00" timeLoss="93.30" rerouteNo="0" devices="tripinfo_three_wheelerFlow12.0" vType="three_wheeler" speedFactor="0.94" vaporized=""/>
    <tripinfo id="carFlow4.0" depart="15.00" departLane="s_in_0" departPos="4.60" departSpeed="0.00" departDelay="15.00" arrival="132.00" arrivalLane="e_out_0" arrivalPos="150.00" arrivalSpeed="12.58" duration="117.00" routeLength="309.60" waitingTime="81.00" waitingCount="1" stopTime="0.00" timeLoss="92.36" rerouteNo="0" devices="tripinfo_carFlow4.0" vType="car" speedFactor="0.95" vaporized=""/>
    <tripinfo id="carFlow8.0" depart="18.00" departLane="s_in_0" departPos="4.60" departSpeed="0.00" departDelay="18.00" arrival="133.00" arrivalLane="n_out_0" arrivalPos="150.00" arrivalSpeed="13.68" duration="115.00" routeLength="309.80" waitingTime="80.00" waitingCount="1" stopTime="0.00" timeLoss="91.80" rerouteNo="0" devices="tripinfo_carFlow8.0" vType="car" speedFactor="1.15" vaporized=""/>
    <tripinfo id="carFlow12.0" depart="21.00" departLane="s_in_0" departPos="4.60" departSpeed="0.00" departDelay="21.00" arrival="135.00" arrivalLane="w_out_0" arrivalPos="150.00" arrivalSpeed="13.72" duration="114.00" routeLength="304.43" waitingTime="79.00" waitingCount="1" stopTime="0.00" timeLoss="91.25" rerouteNo="0" devices="tripinfo_carFlow12.0" vType="car" speedFactor="1.02" vaporized=""/>
    <tripinfo id="vanFlow4.0" depart="23.00" departLane="s_in_0" departPos="4.90" departSpeed="0.00" departDelay="23.00" arrival="139.00" arrivalLane="e_out_0" arrivalPos="150.00" arrivalSpeed="12.12" duration="116.00" routeLength="309.30" waitingTime="78.00" waitingCount="1" stopTime="0.00" timeLoss="90.52" rerouteNo="0" devices="tripinfo_vanFlow4.0" vType="van" speedFactor="0.90" vaporized=""/>
    <tripinfo id="vanFlow8.0" depart="26.00" departLane="s_in_0" departPos="4.90" departSpeed="0.00" departDelay="26.00" arrival="140.00" arrivalLane="n_out_0" arrivalPos="150.00" arrivalSpeed="13.16" duration="114.00" routeLength="309.50" waitingTime="78.00" waitingCount="1" stopTime="0.00" timeLoss="90.92" rerouteNo="0" devices="tripinfo_vanFlow8.0" vType="van" speedFactor="1.04" vaporized=""/>
    <tripinfo id="vanFlow12.0" depart="30.00" departLane="s_in_0" departPos="4.90" departSpeed="0.00" departDelay="30.00" arrival="145.00" arrivalLane="w_out_0" arrivalPos="150.00" arrivalSpeed="11.38" duration="115.00" routeLength="304.13" waitingTime="74.00" waitingCount="1" stopTime="0.00" timeLoss="88.99" rerouteNo="0" devices="tripinfo_vanFlow12.0" vType="van" speedFactor="0.90" vaporized=""/>
    <tripinfo id="busFlow4.0" depart="34.00" departLane="s_in_0" departPos="12.10" departSpeed="0.00" departDelay="34.00" arrival="148.00" arrivalLane="e_out_0" arrivalPos="150.00" arrivalSpeed="11.05" duration="114.00" routeLength="302.10" waitingTime="71.00" waitingCount="1" stopTime="0.00" timeLoss="85.80" rerouteNo="0" devices="tripinfo_busFlow4.0" vType="bus" speedFactor="1.00" vaporized=""/>
    <tripinfo id="busFlow8.0" depart="39.00" departLane="s_in_0" departPos="12.10" departSpeed="0.00" departDelay="39.00" arrival="150.00" arrivalLane="n_out_0" arrivalPos="150.00" arrivalSpeed="10.82" duration="111.00" routeLength="302.30" waitingTime="70.00" waitingCount="1" stopTime="0.00" timeLoss="83.49" rerouteNo="0" devices="tripinfo_busFlow8.0" vType="bus" speedFactor="1.00" vaporized=""/>
    <tripinfo id="vanFlow7.0" depart="29.00" departLane="e_in_0" departPos="4.90" departSpeed="0.00" departDelay="29.00" arrival="155.00" arrivalLane="n_out_0" arrivalPos="150.00" arrivalSpeed="13.61" duration="126.00" routeLength="309.30" waitingTime="86.00" waitingCount="1" stopTime="0.00" timeLoss="102.57" rerouteNo="0" devices="tripinfo_vanFlow7.0" vType="van" speedFactor="1.09" vaporized=""/>
    <tripinfo id="busFlow3.0" depart="34.00" departLane="e_in_0" departPos="12.10" departSpeed="0.00" departDelay="34.00" arrival="160.00" arrivalLane="w_out_0" arrivalPos="150.00" arrivalSpeed="11.04" duration="126.00" routeLength="302.30" waitingTime="84.00" waitingCount="1" stopTime="0.00" timeLoss="98.66" rerouteNo="0" devices="tripinfo_busFlow3.0" vType="bus" speedFactor="1.00" vaporized=""/>
    <tripinfo id="busFlow6.0" depart="39.00" departLane="e_in_0" departPos="12.10" departSpeed="0.00" departDelay="39.00" arrival="164.00" arrivalLane="s_out_0" arrivalPos="150.00" arrivalSpeed="10.87" duration="125.00" routeLength="296.93" waitingTime="84.00" waitingCount="1" stopTime="0.00" timeLoss="96.64" rerouteNo="0" devices="tripinfo_busFlow6.0" vType="bus" speedFactor="1.00" vaporized=""/>
    <tripinfo id="busFlow7.0" depart="44.00" departLane="e_in_0" departPos="12.10" departSpeed="0.00" departDelay="44.00" arrival="168.00" arrivalLane="n_out_0" arrivalPos="150.00" arrivalSpeed="10.30" duration="124.00" routeLength="302.10" waitingTime="82.00" waitingCount="1" stopTime="0.00" timeLoss="96.07" rerouteNo="0" devices="tripinfo_busFlow7.0" vType="bus" speedFactor="1.00" vaporized=""/>
    <tripinfo id="truckFlow3.0" depart="48.00" departLane="e_in_0" departPos="10.10" departSpeed="0.00" departDelay="48.00" arrival="170.00" arrivalLane="w_out_0" arrivalPos="150.00" arrivalSpeed="10.85" duration="122.00" routeLength="304.30" waitingTime="79.00" waitingCount="1" stopTime="0.00" timeLoss="94.57" rerouteNo="0" devices="tripinfo_truckFlow3.0" vType="truck" speedFactor="0.93" vaporized=""/>
    <tripinfo id="truckFlow6.0" depart="53.00" departLane="e_in_0" departPos="10.10" departSpeed="0.00" departDelay="53.00" arrival="174.00" arrivalLane="s_out_0" arrivalPos="150.00" arrivalSpeed="10.70" duration="121.00" routeLength="298.93" waitingTime="76.00" waitingCount="1" stopTime="0.00" timeLoss="93.49" rerouteNo="0" devices="tripinfo_truckFlow6.0" vType="truck" speedFactor="1.05" vaporized=""/>
    <tripinfo id="truckFlow7.0" depart="58.00" departLane="e_in_0" departPos="10.10" departSpeed="0.00" departDelay="58.00" arrival="178.00" arrivalLane="n_out_0" arrivalPos="150.00" arrivalSpeed="11.09" duration="120.00" routeLength="304.10" waitingTime="73.00" waitingCount="1" stopTime="0.00" timeLoss="91.79" rerouteNo="0" devices="tripinfo_truckFlow7.0" vType="truck" speedFactor="1.00" vaporized=""/>
    <tripinfo id="three_wheelerFlow6.1" depart="71.00" departLane="e_in_0" departPos="3.10" departSpeed="0.00" departDelay="0.41" arrival="179.00" arrivalLane="s_out_0" arrivalPos="150.00" arrivalSpeed="12.54" duration="108.00" routeLength="305.93" waitingTime="63.00" waitingCount="1" stopTime="0.00" timeLoss="83.78" rerouteNo="0" devices="tripinfo_three_wheelerFlow6.1" vType="three_wheeler" speedFactor="0.94" vaporized=""/>
    <tripinfo id="vanFlow11.0" depart="29.00" departLane="n_in_0" departPos="4.90" departSpeed="0.00" departDelay="29.00" arrival="183.00" arrivalLane="w_out_0" arrivalPos="150.00" arrivalSpeed="12.72" duration="154.00" routeLength="309.30" waitingTime="109.00" waitingCount="2" stopTime="0.00" timeLoss="130.32" rerouteNo="0" devices="tripinfo_vanFlow11.0" vType="van" speedFactor="1.00" vaporized=""/>
    <tripinfo id="busFlow1.0" depart="33.00" departLane="n_in_0" departPos="12.10" departSpeed="0.00" departDelay="33.00" arrival="189.00" arrivalLane="s_out_0" arrivalPos="150.00" arrivalSpeed="10.78" duration="156.00" routeLength="302.30" waitingTime="106.00" waitingCount="2" stopTime="0.00" timeLoss="127.92" rerouteNo="0" devices="tripinfo_busFlow1.0" vType="bus" speedFactor="1.00" vaporized=""/>
    <tripinfo id="busFlow2.0" depart="37.00" departLane="n_in_0" departPos="12.10" departSpeed="0.00" departDelay="37.00" arrival="193.00" arrivalLane="e_out_0" arrivalPos="150.00" arrivalSpeed="10.36" duration="156.00" routeLength="296.93" waitingTime="106.00" waitingCount="2" stopTime="0.00" timeLoss="127.67" rerouteNo="0" devices="tripinfo_busFlow2.0" vType="bus" speedFactor="1.00" vaporized=""/>
    <tripinfo id="busFlow11.0" depart="42.00" departLane="n_in_0" departPos="12.10" departSpeed="0.00" departDelay="42.00" arrival="197.00" arrivalLane="w_out_0" arrivalPos="150.00" arrivalSpeed="10.93" duration="155.00" routeLength="302.10" waitingTime="102.00" waitingCount="2" stopTime="0.00" timeLoss="126.80" rerouteNo="0" devices="tripinfo_busFlow11.0" vType="bus" speedFactor="1.00" vaporized=""/>
    <tripinfo id="truckFlow1.0" depart="46.00" departLane="n_in_0" departPos="10.10" departSpeed="0.00" departDelay="46.00" arrival="200.00" arrivalLane="s_out_0" arrivalPos="150.00" arrivalSpeed="10.80" duration="154.00" routeLength="304.30" waitingTime="99.00" waitingCount="2" stopTime="0.00" timeLoss="125.66" rerouteNo="0" devices="tripinfo_truckFlow1.0" vType="truck" speedFactor="0.94" vaporized=""/>
    <tripinfo id="truckFlow2.0" depart="54.00" departLane="n_in_0" departPos="10.10" departSpeed="0.00" departDelay="54.00" arrival="203.00" arrivalLane="e_out_0" arrivalPos="150.00" arrivalSpeed="10.84" duration="149.00" routeLength="298.93" waitingTime="95.00" waitingCount="2" stopTime="0.00" timeLoss="121.18" rerouteNo="0" devices="tripinfo_truckFlow2.0" vType="truck" speedFactor="0.93" vaporized=""/>
    <tripinfo id="truckFlow11.0" depart="76.00" departLane="n_in_0" departPos="10.10" departSpeed="0.00" departDelay="76.00" arrival="208.00" arrivalLane="w_out_0" arrivalPos="150.00" arrivalSpeed="10.83" duration="132.00" routeLength="304.10" waitingTime="81.00" waitingCount="1" stopTime="0.00" timeLoss="103.43" rerouteNo="0" devices="tripinfo_truckFlow11.0" vType="truck" speedFactor="1.01" vaporized=""/>
    <tripinfo id="vanFlow10.0" depart="30.00" departLane="w_in_0" departPos="4.90" departSpeed="0.00" departDelay="30.00" arrival="211.00" arrivalLane="s_out_0" arrivalPos="150.00" arrivalSpeed="13.13" duration="181.00" routeLength="309.30" waitingTime="137.00" waitingCount="2" stopTime="0.00" timeLoss="157.42" rerouteNo="0" devices="tripinfo_vanFlow10.0" vType="van" speedFactor="1.09" vaporized=""/>
    <tripinfo id="busFlow5.0" depart="34.00" departLane="w_in_0" departPos="12.10" departSpeed="0.00" departDelay="34.00" arrival="216.00" arrivalLane="e_out_0" arrivalPos="150.00" arrivalSpeed="10.96" duration="182.00" routeLength="302.30" waitingTime="132.00" waitingCount="2" stopTime="0.00" timeLoss="154.21" rerouteNo="0" devices="tripinfo_busFlow5.0" vType="bus" speedFactor="1.00" vaporized=""/>
    <tripinfo id="busFlow9.0" depart="39.00" departLane="w_in_0" departPos="12.10" departSpeed="0.00" departDelay="39.00" arrival="219.00" arrivalLane="n_out_0" arrivalPos="150.00" arrivalSpeed="10.97" duration="180.00" routeLength="296.93" waitingTime="131.00" waitingCount="2" stopTime="0.00" timeLoss="152.43" rerouteNo="0" devices="tripinfo_busFlow9.0" vType="bus" speedFactor="1.00" vaporized=""/>
    <tripinfo id="busFlow10.0" depart="44.00" departLane="w_in_0" departPos="12.10" departSpeed="0.00" departDelay="44.00" arrival="224.00" arrivalLane="s_out_0" arrivalPos="150.00" arrivalSpeed="10.72" duration="180.00" routeLength="302.10" waitingTime="127.00" waitingCount="2" stopTime="0.00" timeLoss="151.85" rerouteNo="0" devices="tripinfo_busFlow10.0" vType="bus" speedFactor="1.00" vaporized=""/>
    <tripinfo id="truckFlow5.0" depart="48.00" departLane="w_in_0" departPos="10.10" departSpeed="0.00" departDelay="48.00" arrival="227.00" arrivalLane="e_out_0" arrivalPos="150.00" arrivalSpeed="10.94" duration="179.00" routeLength="304.30" waitingTime="124.00" waitingCount="2" stopTime="0.00" timeLoss="151.30" rerouteNo="0" devices="tripinfo_truckFlow5.0" vType="truck" speedFactor="1.01" vaporized=""/>
    <tripinfo id="truckFlow9.0" depart="56.00" departLane="w_in_0" departPos="10.10" departSpeed="0.00" departDelay="56.00" arrival="232.00" arrivalLane="n_out_0" arrivalPos="150.00" arrivalSpeed="11.07" duration="176.00" routeLength="298.93" waitingTime="119.00" waitingCount="2" stopTime="0.00" timeLoss="147.75" rerouteNo="0" devices="tripinfo_truckFlow9.0" vType="truck" speedFactor="0.95" vaporized=""/>
    <tripinfo id="truckFlow10.0" depart="104.00" departLane="w_in_0" departPos="10.10" departSpeed="0.00" departDelay="104.00" arrival="235.00" arrivalLane="s_out_0" arrivalPos="150.00" arrivalSpeed="10.98" duration="131.00" routeLength="304.10" waitingTime="82.00" waitingCount="2" stopTime="0.00" timeLoss="103.16" rerouteNo="0" devices="tripinfo_truckFlow10.0" vType="truck" speedFactor="1.07" vaporized=""/>
    <tripinfo id="busFlow12.0" depart="44.00" departLane="s_in_0" departPos="12.10" departSpeed="0.00" departDelay="44.00" arrival="242.00" arrivalLane="w_out_0" arrivalPos="150.00" arrivalSpeed="10.82" duration="198.00" routeLength="296.93" waitingTime="150.00" waitingCount="2" stopTime="0.00" timeLoss="170.25" rerouteNo="0" devices="tripinfo_busFlow12.0" vType="bus" speedFactor="1.00" vaporized=""/>